 +---------------------------------------------------------------+
 |                                                               |
 |        ####### #     # ####### ####### ####### ######         |
 |        #     # ##    # #          #    #       #     #        |
 |        #     # # #   # #          #    #       #     #        |
 |        #     # #  #  # #####      #    #####   ######         |
 |        #     # #   # # #          #    #       #              |
 |        #     # #    ## #          #    #       #              |
 |        ####### #     # #######    #    ####### #              |
 |                                                               |
 |        Linear-Scaling Ab Initio Total Energy Program          |
 |                                                               |
 |          Release for academic collaborators of ODG            |
 |                                             Version 3.4 RC2   |
 |                                                               |
 +---------------------------------------------------------------+
 |                                                               |
 |  Authors:                                                     |
 |  Jacek Dziedzic, Peter D. Haynes, Nicholas D. M. Hine,        |
 |  Arash. A. Mostofi, Mike C. Payne and Chris-Kriton Skylaris   |
 |                                                               |
 |  Contributors:                                                |
 |  J. Aarons, L. Andrinopoulos, P. W. Avraam, S. J. Clark,      |
 |  P. J. Cherry, F. Corsetti, N. Corsini, O. Dieguez,           |
 |  S. M. M. Dubois, H. H. Helal, Q. O. Hill, D. D. O`Regan,     |
 |  C. J. Pickard, L. P. Lee, M. I. J. Probert, L. Ratcliff,     |
 |  M. Robinson, A. Ruiz Serrano, G. Teobaldi, K. A. Wilkinson   |
 |  and T. J. Zuehlsdorff                                        |
 |                                                               |
 |                                   Copyright (c) 2004-2013     |
 |                                                               |
 |  Please cite:                                                 |
 |  "Introducing ONETEP: Linear-scaling density functional       |
 |   simulations on parallel computers".                         |
 |   C.-K. Skylaris, P. D. Haynes, A. A. Mostofi, M. C. Payne.   |
 |   J. Chem. Phys. 122 084119 (2005).                           |
 |                                                               |
 |          in all publications arising from your use of ONETEP. |
 |                                                               |
 +---------------------------------------------------------------+
 |                                                               |
 |   ONETEP is based on developments described in the following  |
 |   publications:                                               |
 |                                                               |
 |  "Nonorthogonal generalized Wannier function pseudopotential  |
 |   plane-wave method".                                         |
 |   C.-K. Skylaris, A. A. Mostofi, P. D. Haynes, O. Dieguez,    |
 |   M. C. Payne.                                                |
 |   Phys. Rev. B 66 035119 (2002).                              |
 |                                                               |
 |  "Preconditioned iterative minimization for linear-scaling    |
 |   electronic structure calculations".                         |
 |   A. A. Mostofi, P. D. Haynes, C.-K. Skylaris, M. C. Payne.   |
 |   J. Chem. Phys. 119(17), pp.8842-8848 (2003).                |
 |                                                               |
 |  "Total-energy calculations on a real space grid with         |
 |   localized functions and a plane-wave basis".                |
 |   A. A. Mostofi, C.-K. Skylaris, P. D. Haynes, M. C. Payne.   |
 |   Comput. Phys. Commun. 147, pp.788-802 (2002).               |
 |                                                               |
 |  "Accurate kinetic energy evaluation in electronic structure  |
 |   calculations with localized functions on real space grids"  |
 |   C.-K. Skylaris, A. A. Mostofi, P. D. Haynes, C. J. Pickard, |
 |   M. C. Payne.                                                |
 |   Comput. Phys. Commun. 140, pp.315-322 (2001).               |
 |                                                               |
 |  "Accurate ionic forces and geometry optimization in linear-  |
 |   scaling density-functional theory with local orbitals"      |
 |   N. D. M. Hine, M. Robinson, P. D. Haynes, C.-K. Skylaris,   |
 |   M. C. Payne, and A. A. Mostofi.                             |
 |   Phys. Rev. B 83 195102 (2011).                              |
 |                                                               |
 +---------------------------------------------------------------+

Job started: 27-11-2013 11:59 (-0000)

Running on    24 processors.
 
Reading parameters from file "neutral_H.dat" ...... done
Reading geometry and species blocks from file "neutral_H.dat" ...    
  Number of PPD points along a3 set to 1 from input file.
... done
-------------------------------------------------------------------------------
---------------------------- RUN-TIME PARAMETERS ------------------------------
-------------------------------------------------------------------------------
task                         : SINGLEPOINT *! Type of calculation (String)      
cutoffenergy                 : 22.0493965347193      hartree *! Plane wave kine 
kernelcutoff                 : 1000.00000000000 *! Density kernel radius in Boh 
xcfunctional                 : PBE *! Exchange-correlation functional (String)  
libxcxfuncid                 : 0 *! Functional identifier for which exchange fu 
libxccfuncid                 : 0 *! Functional identifier for which correlation 
charge                       : 0.000000000000000E+000 *! The total charge of th 
spin                         : 0 *! Total spin of system (Integer)              
spinpolarized                : F *! Switch for spin polarisation (Boolean)      
spinpolarised                : F *! Switch for spin polarisation (Boolean)      
constantefield               : 0.0000000000     0.0000000000     0.0000000000 * 
fftboxpref                   : 0 0 0 *! Preferred FFT box dimensions (String)   
ppdnpoints                   : 0 0 1 *! PPD edge length in grid points for each 
psincspacing                 : 0.0 0.0 0.0 *! PSINC grid spacing in atomic unit 
oldinput                     : F *! Read old-format input file (Boolean)        
develcode                    : *! For development code only (String)            
nnho                         : F *! Initialise NGWFs to nonorthogonal natural h 
ngwfhalo                     : -1.00000000000000 *! Halo extension to NGWF radi 
nonscforces                  : T *! Include non self-consistent forces due to N 
externalpressure             : 0.000000000000000E+000 ha/bohr**3 *! External ap 
smoothingfactor              : 5.00000000000000 *! Smoothing factor in volume t 
isosurfacecutoff             : 5.000000000000000E-004 *! Isosurface cutoff in v 
maxitpalsermano              : 50 *! Maximum number of iterations for Palser-Ma 
maxitkernelocccheck          : 0 *! Maximum number of kernel resets after occup 
maxitpen                     : 3 *! Max number of penalty functional iterations 
penparam                     : 4.00000000000000 *! Penalty functional parameter 
minitlnv                     : 10 *! Min number of LNV iterations (Integer)     
maxitlnv                     : 10 *! Max number of LNV iterations (Integer)     
lnvthresholdorig             : 1.000000000000000E-009 *! LNV convergence thresh 
lnvcgtype                    : LNV_FLETCHER *! Type of CG coefficient for LNV d 
lnvcgmaxstep                 : 3.00000000000000 *! Maximum length of trial step 
exactlnv                     : T *! Use original LNV algorithm (Boolean)        
oldlnv                       : F *! Use LNV algorithm backwards compatible pre  
lnvchecktrialsteps           : T *! Check stability of kernel at each trial ste 
kerfix                       : 1 *! Density kernel fixing approach (Integer)    
maxitkernelfix               : 3 *! Maximum # iterations of Penalty Functional  
initialdensrealspace         : T *! Construct initial density in real space fro 
kerneldiissize               : 10 *! Max number of kernels saved during kernel  
kerneldiismaxit              : 25 *! Max number of kernel DIIS iterations (Inte 
kerneldiisthreshold          : 1.000000000000000E-009 *! Density mixing converg 
kerneldiislineariter         : 5 *! Number of linear mixing iterations (Integer 
kerneldiiscoeff              : 0.100000000000000 *! Coefficient for the input k 
kerneldiisconvcriteria       : 1000 *! Density mixing convergence criteria (Str 
kerneldiislshift             : 1.00000000000000 *! The initial value of Beta in 
kerneldiislsiter             : 0 *! Maximum Level shifting iteration (Integer)  
kerneldiisscheme             : NONE *! Select scheme for kernel-diis (String)   
edft                         : F *! Use Ensemble-DFT method to optimise the ker 
edftmaxit                    : 10 *! Maximum number of EDFT iterations to optim 
edftmaxstep                  : 1.00000000000000 *! Maximum step during EDFT lin 
edftsmearingwidth            : 3.166811429000000E-003 hartree *! Occupancy smea 
edftfreeenergythres          : 1.000000000000000E-006 *! Convergence threshold  
edftenergythres              : 1.000000000000000E-004 *! Convergence threshold  
edftentropythres             : 1.000000000000000E-004 *! Convergence threshold  
edftrmsgradientthres         : 1.000000000000000E-004 *! Convergence threshold  
edftcommutatorthres          : 1.000000000000000E-005 *! Convergence threshold  
edftfermithres               : 1.000000000000000E-003 *! Convergence threshold  
edftwriteocc                 : F *! Generate file with smeared occupancies (Boo 
edftextrabands               : -1 *! Number of additional MOs with non-zero occ 
eigensolverorfac             : 1.000000000000000E-004 *! Precision to which the 
eigensolverabstol            : 1.000000000000000E-009 *! Precision to which the 
writehamiltonian             : F *! Save current Hamiltonian matrix in a file ( 
readhamiltonian              : F *! Read current Hamiltonian matrix from a file 
ngwfcgrotate                 : F *! Rotate density kernel during NGWF optimizat 
edftroundevals               : -1 *! Round EDFT eigenvalues to N decimal figure 
maxitngwfcg                  : 100 *! Max number of NGWF conjugate gradients (C 
ngwfcgtype                   : NGWF_FLETCHER *! Type of CG coefficient for NGWF 
ngwfcgmaxstep                : -8.00000000000000 *! Maximum length of trial ste 
eleccgmax                    : 3 *! Number of NGWF iterations to reset CG (Inte 
precondscheme                : TETER *! Recip-space preconditioning scheme (Str 
kzero                        : 3.00000000000000 *! KE preconditioning parameter 
rprecond                     : 2.00000000000000 *! Radial cut-off for real-spac 
precondrecip                 : T *! Recip-space KE preconditioning (Boolean)    
precondreal                  : F *! Real-space KE preconditioning (Boolean)     
smoothscheme                 : NONE *! Smoothing scheme for the NGWF gradients  
rsmooth                      : 1.50000000000000      bohr *! Radius of the unsh 
ksmooth                      : 5.00000000000000 *! Characteristic wavelength of 
occmix                       : 0.250000000000000 *! Mix fraction of occupancy p 
kernelupdate                 : F *! Update density kernel during NGWF line sear 
kernelchristoffelupdate      : F *! Update density kernel during NGWF line sear 
maxithotelling               : 100 *! Number of Hotelling iteration per NGWF ch 
maxresidhotelling            : 1.000000000000000E-012 *! Max allowed value in H 
maxitngwfdiis                : 0 *! Max number of NGWF DIIS steps (Integer)     
ngwfdiissize                 : 4 *! Max size of the DIIS iterative subspace (In 
ngwfdiisreset                : 8 *! Max number of iteration for the resetting o 
ngwfdiismaxstep              : 2.00000000000000 *! Max length of trial step for 
ngwfthresholdorig            : 1.837500000000000E-006 *! NGWF convergence thres 
elecenergytol                : 1.837449711226610E-008 hartree *! Tolerance on t 
elecforcetol                 : -1.000000000000000E-003 ha/bohr *! Tolerance on  
ngwfmaxgrad                  : -2.000000000000000E-005 *! Maximum permissible v 
deltaeconv                   : T *! Use consecutive energy gains as a criterion 
kernelforceconv              : F *! Force density kernel convergence on last NG 
locpotintbatchsize           : 10 *! Size of NGWF in fftbox batch for locpot in 
kineticintbatchsize          : 10 *! Size of NGWF in fftbox batch for kinetic i 
densitybatchsize             : 10 *! Size of NGWF in fftbox batch for charge de 
ngwfgradbatchsize            : 10 *! Size of NGWF in fftbox batch for NGWF grad 
densethreshold               : 0.400000000000000 *! Threshold for matrix segmen 
commsgroupsize               : 4 *! Number of nodes in a group (determines comm 
ovlpfornonlocal              : F *! Overlap sparsity for nonlocal (Boolean)     
usespacefillingcurve         : T *! Re-arrange atoms according to space-filling 
corehamdenskernguess         : T *! Initial guess for density kernel from core  
checkatoms                   : T *! Check atoms on top of each other (Boolean)  
locpotscheme                 : FULL *! Scheme for evaluating local potential ma 
smoothprojectors             : -0.400000000000000 *! Halfwidth of Gaussian filt 
smoothlocpspot               : -0.400000000000000 *! Halfwidth of Gaussian filt 
oddpsincgrid                 : F *! Force odd number of points in simcell psinc 
evenpsincgrid                : F *! Force even number of points in simcell psin 
realspaceprojectors          : F *! Whether to evaluate and store projectors in 
projectorsprecalculate       : T *! Whether to pre-calculate the nonlocal proje 
outputdetail                 : VERBOSE *! Level of output detail (String)       
pawoutputdetail              : DEFAULT *! Level of output detail for PAW: BRIEF 
timingslevel                 : 1 *! Level of timings output: 0(none) 1(nodes su 
writeparams                  : T *! Output runtime parameters at startup (Boole 
writeforces                  : T *! Write ionic forces (Boolean)                
writepositions               : T *! Write ionic positions each geometry or MD s 
writexyz                     : F *! Output coordinates in .xyz file (Boolean)   
printqc                      : F *! Print Quality Control information (Boolean) 
cubeformat                   : T *! Allow .cube format for plot outputs (Boolea 
dxformat                     : F *! Allow .dx format for plot outputs (Boolean) 
dxformatcoarse               : F *! Output only points on the coarse grid (Bool 
dxformatdigits               : 7 *! Number of significant digits in .dx output  
grdformat                    : T *! Allow .grd format for plot outputs (Boolean 
writedensityplot             : T *! Write the charge density in plotting format 
writengwfplot                : F *! Write NGWFs in plotting format (Boolean)    
writengwfgradplot            : F *! Write NGWF Gradients in plotting format (Bo 
writengwfradial              : 0 *! Write NGWFs radial distributions (Integer)  
writengwfgradradial          : 0 *! Write NGWFs gradients radial distributions  
writeradialstep              : 5.000000000000000E-003 bohr *! Define the grid s 
writeradialsmear             : 1.000000000000000E-002 bohr *! Define the gaussi 
readdenskern                 : F *! Read density kernel restart information (Bo 
writedenskern                : T *! Write density kernel restart information (B 
readtightboxngwfs            : F *! Read in universal tightbox NGWFs restart in 
writetightboxngwfs           : T *! Write in universal tightbox NGWFs restart i 
writeconvergeddkngwfs        : F *! Only write Density Kernel and NGWFs upon co 
readswngwfs                  : F *! Read NGWFs restart information in spherical 
writeswngwfs                 : F *! Write NGWFs restart information in spherica 
writemaxl                    : 3 *! Maximum angular momentum number when writin 
readmaxl                     : 3 *! Maximum angular momentum number when readin 
extransw                     : 0 *! Maximum number of zeros of the sph Bessel f 
paw                          : F *! Uses a PAW construction to find correct cor 
finegridscale                : 2.00000000000000 *! Ratio of size of fine grid t 
dblgridscale                 : 2.00000000000000 *! Ratio of charge density / po 
augfuncsrecip                : T *! Construct Augmentation functions in recip s 
dispersion                   : 0 *! Select dispersion correction (Integer)      
vdwdcoeff                    : -1.00000000000000 *! Replacement VDW damping coe 
hubbardmaxiter               : 0 *! Maximum number of DFT+U projector optimisat 
hubbardenergytol             : 1.000000000000000E-008 hartree *! Energy toleran 
hubbardconvwin               : 2 *! Energy convergence window when using DFT+U  
hubbardprojmixing            : 0.000000000000000E+000 *! Proportion of old Hubb 
hubbardfunctional            : 1 *! DFT+U energy functional to use (Integer)    
hubbardtensorcorr            : 1 *! DFT+U projector tensorial correction to use 
hubbardngwfspinthreshold     : 2.000000000000000E-005 *! NGWF RMS  gradient thr 
cdftatomcharge               : F *! Perform an ATOM-CHARGE-constrained CDFT sim 
cdftatomspin                 : F *! Perform an ATOM-SPIN-constrained CDFT simul 
cdftgroupchargediff          : F *! Perform a GROUP-CHARGE-DIFFERENCE-constrain 
cdftgroupspindiff            : F *! Perform a GROUP-SPIN-DIFFERENCE-constrained 
cdftgroupchargeacceptor      : F *! Perform an ACCEPTOR GROUP-CHARGE-constraine 
cdftgroupchargedonor         : F *! Perform a DONOR GROUP-CHARGE-constrained CD 
cdftgroupspinacceptor        : F *! Perform an ACCEPTOR GROUP-SPIN-constrained  
cdftgroupspindonor           : F *! Perform a DONOR GROUP-SPIN-constrained CDFT 
cdfthubbard                  : F *! Perform a constrained-DFT+U simulation (Boo 
cicdft                       : F *! Perform a CONFIGURATION-INTERACTION CDFT si 
cdftprintallocc              : F *! Logical to have the occupancy-matrix of all 
cdftreadprojectors           : F *! Logical to read cDFT-projectors from file ( 
cdftgroupchargeuponly        : F *! Logical to constrain only UP electrons (Boo 
cdftgroupchargedownonly      : F *! Logical to constrain only UP electrons (Boo 
cdftmultiproj                : F *! Logical to use mutiple angular-momentum pro 
cicdftnumconf                : 0 *! Number of cDFT-configurations for CI_CDFT s 
cdftgroupchargedifftarget    : 0.000000000000000E+000 *! Targeted CHARGE differ 
cdftgroupspindifftarget      : 0.000000000000000E+000 *! Targeted SPIN differen 
cdftchargeacceptortarget     : 0.000000000000000E+000 *! Targeted group-CHARGE  
cdftchargedonortarget        : 0.000000000000000E+000 *! Targeted group-CHARGE  
cdftspinacceptortarget       : 0.000000000000000E+000 *! Targeted group-SPIN fo 
cdftspindonortarget          : 0.000000000000000E+000 *! Targeted group-SPIN fo 
maxitcdftucg                 : 60 *! Max number of cdFT-U conjugate gradients ( 
cdftcgtype                   : NGWF_FLETCHER *! Type of CG coefficient for CDFT 
cdftcgthreshold              : 1.000000000000000E-003 *! RMS gradient convergen 
cdfttriallength              : 0.100000000000000 *! Trial length for cDFT line- 
cdftcgmax                    : 5 *! Number of U-opt iterations to reset CG (Int 
cdftmaxgrad                  : 1.000000000000000E-003 *! Maximum permissible va 
cdftelecenergytol            : -1.000000000000000E-004 hartree *! Tolerance on  
cdftcgmaxstep                : 50.0000000000000 *! Maximum length of trial step 
cdftguru                     : F *! Let the user signal she/he does not need he 
cdftcontinuation             : F *! Logical to restart (from the *.cdft file) a 
cdfttight                    : F *! Logical to activate tight NGWFs-cDFT optimi 
coulombcutoffradius          : 0.000000000000000E+000 bohr *! Radius of sphere  
coulombcutofflength          : 0.000000000000000E+000 bohr *! Length of cylinde 
coulombcutofftype            : NONE *! Type of cutoff coulomb interaction: NONE 
coulombcutoffwriteint        : F *! Write real-space cutoff Coulomb interaction 
pbccorrectioncutoff          : 0.000000000000000E+000 *! alpha*L cutoff paramet 
doproperties                 : T *! Allow calculation of properties (Boolean)   
numeigenvalues               : 6 *! Number of energy and occupancy eigenvalues  
homodensplot                 : -1 *! Number of squared MOs to plot from HOMO an 
lumodensplot                 : -1 *! Number of squared MOs to plot from LUMO an 
homoplot                     : -1 *! Number of MOs to plot from HOMO and lower  
lumoplot                     : -1 *! Number of MOs to plot from LUMO and higher 
dossmear                     : 3.674899422453221E-003 hartree *! Half width of  
ldossmear                    : 3.674932438755288E-003 hartree *! Lorentzian bro 
popncalculate                : T *! Allow population analysis (Boolean)         
popnbondcutoff               : 5.66918063332307      bohr *! Bond length cutoff 
ngwfanalysis                 : F *! Perform NGWF analysis (Boolean)             
polarisationcalculate        : F *! Allow calculation of polarisation (Boolean) 
spreadcalculate              : F *! Calculate spread of NGWFs (Boolean)         
geommodulusest               : 1.700000000000000E-002 ha/bohr**3 *! The estimat 
geomfrequencyest             : 7.600000000000000E-003 hartree *! The estimated  
geomenergytol                : 1.837449711226610E-007 hartree *! Geometry optim 
geomforcetol                 : 1.944674384562913E-004 ha/bohr *! Geometry optim 
geomdisptol                  : 9.448634388871778E-004 bohr *! Geometry optimiza 
geommaxiter                  : 100 *! Maximum number of geometry optimization i 
geomconvergencewin           : 2 *! Geometry optimization convergence tolerance 
geomcontinuation             : F *! Read information for continuation of a prev 
geombackupiter               : 1 *! Number of geometry optimisation iterations  
geomresetdkngwfsiter         : 6 *! Number of geom iterations between resets of 
geomlbfgsmaxupdates          : 30 *! Number of LBFGS update vectors to store (I 
geomlbfgsblocklength         : 30 *! How many updates to store before reallocat 
geomreusedkngwfs             : T *! Re-use density kernel and NGWFs during geom 
geomprintinvhessian          : F *! Write inverse Hessian to standard output (B 
geommethod                   : CARTESIAN *! Method for geometry optimization (S 
geomlbfgs                    : F *! Whether to perform LBFGS rather than BFGS i 
tssearchmethod               : LSTQST *! Specifies method to be used for TS sea 
tssearchlstqstprotocol       : LSTMAXIMUM *! Specifies LSTQST protocol (String) 
tssearchqstmaxiter           : 5 *! Specifies maximum number of QST steps (Inte 
tssearchcgmaxiter            : 20 *! Specifies maximum number of CG steps (Inte 
tssearchforcetol             : 5.000000000000000E-003 ha/bohr *! Force toleranc 
tssearchdisptol              : 1.000000000000000E-002 bohr *! Displacement tole 
mdproperties                 : F *! Compute vibrational and IR spectra from MD  
mdrestart                    : F *! Restart MD from backup files (Boolean)      
mddeltat                     : 40.0000000000000      aut *! Molecular dynamics  
mdnumiter                    : 100 *! Maximum number of molecular dynamics iter 
mdresethistory               : 100 *! Reset mixing scheme for initial guess of  
mtsxi                        : F *! Internal thermostat in the multiple time-st 
mtsnstep                     : 1 *! Number of time steps in the multiple time-s 
mtsngwfthreshold             : 5.000000000000000E-004 *! NGWF convergence thres 
mtslnvthreshold              : 5.000000000000000E-006 *! LNV convergence thresh 
mixdkntype                   : NONE *! Type of mixing used to build new guess f 
mixdknnum                    : 0 *! Number of coefficients used to build new gu 
mixdkninittype               : NONE *! Type of initialization before MIX_DKN_TY 
mixdkninitnum                : 0 *! Number of steps before extrapolation of the 
mixdknreset                  : 50 *! Number of extrapolation steps between two  
mixngwfstype                 : NONE *! Type of mixing used to build new guess f 
mixngwfsnum                  : 0 *! Number of coefficients used to build new gu 
mixngwfsinittype             : NONE *! Type of initialization before MIX_DKN_TY 
mixngwfsinitnum              : 0 *! Number of steps before extrapolation of the 
mixngwfsreset                : 50 *! Number of extrapolation steps between two  
mixlocallength               : 10.0000000000000      bohr *! Max radius for loc 
mixlocalsmear                : 5.00000000000000      bohr *! Radial smearing fo 
condreaddenskern             : F *! Read in conduction density kernel (Boolean) 
condreadtightboxngwfs        : F *! Read in universal tightbox conduction NGWFs 
condfixedshift               : F *! Fixed projected conduction Hamiltonian shif 
condcalcmaxeigen             : T *! Calculate maximum conduction Hamiltonian ei 
condnumstates                : 0 *! Number of conduction states to be optimised 
condmaxitlnv                 : 10 *! Max number of LNV iterations during conduc 
condminitlnv                 : 10 *! Min number of LNV iterations during conduc 
condkernelcutoff             : 1000.00000000000 *! Conduction density kernel ra 
condinitshift                : 0.000000000000000E+000 *! Initial shifting facto 
condshiftbuffer              : 0.100000000000000 *! Additional buffer for updat 
condnumextrastates           : 0 *! Number of extra conduction states for initi 
condnumextraits              : 0 *! Number of NGWF iterations with extra conduc 
condplotjointorbitals        : T *! Plot orbitals in the joint basis following  
condplotvcorbitals           : T *! Plot orbitals in the val and cond NGWF basi 
condcalcopticalspectra       : F *! Calculate matrix elements for optical absor 
condspeccalcmommatels        : T *! Calculate momentum matrix elements (default 
condspeccalcnonloccomm       : T *! Calculate nonlocal commutator for momentum  
condspeccontderiv            : T *! Calculate non-local commuator using continu 
condspecnonloccommshift      : 1.000000000000000E-004 *! Finite difference shif 
condspecprintmatels          : F *! Write optical matrix elements to file (Bool 
condspecoptsmear             : 3.674932438755288E-003 hartree *! Half width of  
condspecscissorop            : 0.000000000000000E+000 hartree *! Scissor operat 
condcalceels                 : F *! Calculate matrix elements for electron ener 
lrtddftcalculate             : F *! enables LR-TDDFT calculation (Boolean)      
lrtddftnumstates             : 1 *! Sets the number of excitation energies we w 
lrtddftcgthreshold           : 1.000000000000000E-006 *! sets convergence toler 
lrtddftpenaltytol            : 1.000000000000000E-008 *! sets the convergence t 
lrtddftmaxitpen              : 20 *! sets the maximum number of iterations for  
lrtddftmaxitcg               : 60 *! sets the maximum number of iterations for  
lrtddftresetcg               : 100 *! sets the number of iterations after which 
lrtddftkernelcutoff          : 1000.00000000000 *! sets cutoff on the effective 
lrtddftwritedensities        : T *!Determines whether to write out TDDFT respon 
lrtddftwritekernels          : F *! writes out response kernels after each iter 
lrtddftrestart               : F *! Restart flag for the LR_TDDFT option (Boole 
etransbulk                   : F *! Compute electronic transport coefficients ( 
etranslcr                    : F *! Compute electronic transport coefficients ( 
etranssameleads              : F *! Use same description for all leads (Boolean 
etranswritehs                : T *! Write hamiltonian corresponding to transpor 
etransecmplx                 : 1.000000000000000E-003 hartree *! Imaginary part 
etransemax                   : 0.200000000000000      hartree *! Highest energy 
etransemin                   : -0.200000000000000      hartree *! Lowest energy 
etransenum                   : 50 *! Number of energy points for the calculatio 
phononfarmingtask            : 0 *! Operation to perform for phonon calc (for t 
phononfinitedisp             : 0.100000000000000      bohr *! Amplitude of the  
phononfmax                   : 5.000000000000000E-003 ha/bohr *! Maximum force  
phonontmin                   : 0.000000000000000E+000 hartree *! Lower bound of 
phonontmax                   : 2.000000000000000E-003 hartree *! Upper bound of 
phonondeltat                 : 1.500000000000000E-005 hartree *! Temperature st 
phononminfreq                : 3.600000000000000E-006 hartree *! Discard phonon 
bskpointpathspacing          : 0.188972700000000      1/bohr *! K-point spacing 
bsnumeigenvalues             : -1 *! Num of energy and occ. eigenvalues to prin 
bsunfold                     : 0 0 0 *! Number of times to unfold Brillouin zon 
bsmethod                     : TB *! Method to use: 'KP' or 'TB' (String)       
dotddft                      : F *! Allow Time-Dependent DFT calculation (Boole 
tddftmaximumenergy           : 1.00000000000000      hartree *! Desired maximum 
tddftresolution              : 1.000000000000000E-003 hartree *! Desired resolu 
tddftpropagationmethod       : CRANKNICHOLSON *! Method used to integrate von N 
tddftsparsitylevel           : 0 *! Matrix sparsity when computing propagators  
tddfttammdancoff             : F *! Invoke Tamm-Dancoff decoupling approximatio 
tddftdipolekickstrength      : 0.0 0.0 0.0 *! Maximum allowed phase shift in TD 
tddftxcfunctional            : LDA *! Exchange-correlation functional for TDDFT 
tddfthamiltonianmixing       : 0 *! Order of polynomial extrapolation to H(t +  
tddftdamping                 : 0.000000000000000E+000 hartree *! Energy smearin 
tddftenforcedidempotency     : F *! Project out at each timestep that part of c 
tddftmaxithotelling          : 50 *! Number of Hotelling iteration per propagat 
tddftmaxresidhotelling       : 1.000000000000000E-018 *! Max allowed value in H 
tddftinvoverlapexact         : T *! Renew inverse overlap with O N^3 algorithm  
isimplicitsolvent            : F *! Use implicit solvent? (Boolean)             
issmearedionrep              : F *! Implicit solvent: use smeared ions for elec 
isincludecavitation          : F *! Implicit solvent: include cavitation energy 
isdensitythreshold           : 7.800000000000000E-004 *! Implicit solvent: rho_ 
issolvationbeta              : 1.30000000000000 *! Implicit solvent: beta param 
isbulkpermittivity           : 1.00000000000000 *! Implicit solvent: eps_inf pa 
ismultigriddefecterrortol    : 1.000000000000000E-002 *! Implicit solvent: stop 
ismultigriderrortol          : 1.000000000000000E-005 *! Implicit solvent: stop 
issmearedionwidth            : 0.800000000000000 *! Implicit solvent: Width of  
iscorewidth                  : 1.20000000000000 *! Implicit solvent: Radius whe 
issurfacethickness           : 2.000000000000000E-004 *! Implicit solvent: thic 
issolventsurfacetension      : 4.762400000000000E-005 ha/bohr**2 *! Implicit so 
ismultigridmaxiters          : 100 *! Implicit solvent: max number of iteration 
ismultigridnlevels           : 4 *! Implicit solvent: number of levels in multi 
isdiscretizationorder        : 8 *! Implicit solvent: discretization order (2nd 
isbccoarseness               : 5 *! Open BCs: controls boundary condition coars 
isbcsurfacecoarseness        : 1 *! Open BCs: controls boundary condition coars 
isbcthreshold                : 1.000000000000000E-009 *! Open BCs: controls bou 
ischecksolvenergygrad        : F *! Implicit solvent: sanity check the energy g 
issolvationmethod            : DIRECT *! Implicit solvent: direct or corrective 
isdielectricmodel            : FIX_INITIAL *! Implicit solvent: how the cavity  
isdielectricfunction         : FGF *! Implicit solvent: how the cavity is deter 
issolvationoutputdetail      : NONE *! Implicit solvent: controls extra output  
openbcionion                 : F *! Force open BCs in ion-ion energy (Boolean)  
openbchartree                : F *! Force open BCs in Hartree potential (Boolea 
openbcpspot                  : F *! Force open BCs in local pseudopotential (Bo 
openbcpspotfinetunenptsx     : 100000 *! Open BCs in local pseudo, npts_x param 
openbcpspotfinetunealpha     : 0.300000000000000 *! Open BCs in local pseudo, a 
openbcpspotfinetunef         : -1 *! Open BCs in local pseudo, fineness paramet 
hfxintegration               : 2 *! Variant of the numerical pointwise approach 
hfxcutoff                    : 1000.00000000000 *! HFx cutoff radius in Bohr (D 
hfxnlppforexchange           : F *! Give exchange matrix same sparsity as non-l 
hfxradialsegments            : 50 *! Number of radial segments in vmatrix evalu 
hfxangularsegments           : 50 *! Number of angular segments in vmatrix eval 
hfxcheborder                 : 16 *! Order for Chebyshev interpolation (Integer 
hfxchebintervals             : 14 *! Number of intervals Chebyshev interpolatio 
hfxchebabatchsize            : 10 *! Number of SW expansions buffered (Integer) 
hfxchebbbatchsize            : 10 *! Number of SW pot expansions buffered (Inte 
hfxmaxl                      : 4 *! Maximum quantum number l used for SW expans 
hfxmaxzeros                  : 10 *! Maximum number of Bessel zeros used for SW 
hfxreadvmatrix               : F *! Read restart information for the V matrix ( 
hfxwritevmatrix              : F *! Write restart information for the V matrix  
hfxreadxmatrix               : F *! Read restart information for the X matrix ( 
hfxwritexmatrix              : F *! Write restart information for the X matrix  
hfxdebug                     : F *! Debug HFx? (Boolean)                        
hfxmetric                    : ELECTROSTATIC *! Electrostatic or overlap metric 
hfxoverlapindirect           : F *! Inversions done for overlap metric (Boolean 
hfximproveinverse            : F *! Use Hotelling improvement when calculating  
hfxcthreshold                : 0.000000000000000E+000 *! Absolute magnitude bel 
hfxcachelimitforsnpos        : 1024 *! Max cache size for SWOP-NGWF-product ove 
hfxcachelimitforswops        : 1024 *! Max cache size for SWs or SWpots in PPDs 
hfxcachelimitforwmats        : 1024 *! Max cache size for W-matrices (in MiB) ( 
hfxcachelimitforexpansions   : 1024 *! Max cache size for expansions (tb_swpot_ 
hfxcachelimitforps           : 1024 *! Max cache size for p_beta_delta (in MiB) 
writenbo                     : F *! Performs Natural Population Analysis and wr 
nboinitlclowdin              : T *! Performs atom-centered Lowdin symmetric ort 
nbowritelclowdin             : F *! Write a GENNBO FILE.47 containing all the a 
nbowritenpacomp              : F *! Writes individual NAO population into the s 
nboscaledm                   : T *! Scales density matrix in the FILE.47 output 
nbowritedipole               : F *! Writes dipole matrix to FILE.47 (Boolean)   
nboscalespin                 : T *! Whether or not partial density matrices for 
nbopnaoanalysis              : F *! S/P/D/F CHARACTER ANALYSIS ON PNAO. (Boolea 
nboaopnaoscheme              : ORIGINAL *! AO to PNAO scheme to use in generati 
plotnbo                      : F *! Plot NBO's orbitals from FILE.xx as defined 
nboplotorbtype               : *! Type of GENNBO-generated orbital to plot. (St 
%block positionsabs          : *! Cartesian positions for each atom (Block)     
O1 21.20667591772261      0.91878645500000       14.25907291374034              
O1 7.49106461841340       8.67100473999998       6.60798512734514               
O1 18.65905823397026      8.67100473999998       22.20081854371137              
O1 8.22865192759300       7.10180846000000       1.88975068118300               
O1 19.39664554314984      7.10180846000000       17.48258409754923              
O1 3.85747862061558       2.48797584000000       7.28313990161266               
O1 15.02547223617242      2.48797584000000       22.87597331797888              
O1 22.40682974962838      5.71449365999998       13.62044805711923              
O1 8.48392020634485       3.87491105999998       5.67592387029351               
O1 19.65191382190170      3.87491105999998       21.26875728665974              
O1 2.16136093874091       2.30841122000000       2.59916013937864               
O1 13.32935455429775      2.30841122000000       18.19199355574488              
O1 12.11836358982052      7.28144255999999       5.00292755634882               
O1 23.28635720537736      7.28144255999999       20.59576097271505              
Si1 23.41885169508152      2.83028538000000       13.31663544316786             
Si1 9.09636449919368       6.75976071999999       4.81651769866093              
Si1 20.26435811475054      6.75976071999999       20.40935111502716             
Si1 20.19379836875159      7.62484863999999       14.56242559734830             
Si1 6.87874414527409       1.96525446000000       7.46883452305802              
Si1 18.04673776083094      1.96525446000000       23.06166793942425             
O1 15.62272058053217      0.91879578200000       6.46269815263023               
O1 26.79071419608901      0.91879578200000       22.05553156899645              
O1 13.07507242429289      8.67100986999999       14.40439994865961              
O1 13.81267123608442      7.10182381000000       9.68611561512915               
O1 24.98066485164125      7.10182381000000       25.27894903149537              
O1 9.44144324193680       2.48797754000000       15.07953142070343              
O1 16.82283654116882      5.71450924999999       5.82402985343867               
O1 27.99083015672568      5.71450924999999       21.41686326980490              
O1 14.06792236690797      3.87492925000000       13.47230855232956              
O1 7.74533551618711       2.30836192000000       10.39554855721950              
O1 18.91332913174396      2.30836192000000       25.98838197358572              
O1 17.70235936405457      7.28145826000000       12.79930162153969              
Si1 17.83486661537278      2.83030749000000       5.52022222944919              
Si1 29.00286023092961      2.83030749000000       21.11305564581540             
Si1 14.68035817285598      6.75977762000000       12.61291170652210             
Si1 14.60979535373180      7.62485642999998       6.76598292855166              
Si1 25.77778896928864      7.62485642999998       22.35881634491788             
Si1 12.46271995836196      1.96526880000000       15.26523737472391             
O1 21.20669433407804      10.50860099999999      14.25909495159535              
O1 7.49105706501181       18.26082969999997      6.60799266524431               
O1 18.65905068056865      18.26082969999997      22.20082608161053              
O1 8.22865218693225       16.69167019999997      1.88972631300000               
O1 19.39664580248909      16.69167019999997      17.48255972936623              
O1 3.85748744793941       12.07781119999999      7.28310688754969               
O1 15.02548106349626      12.07781119999999      22.87594030391591              
O1 22.40685308695212      15.30434929999998      13.62048066662005              
O1 8.48392871111230       13.46474249999999      5.67589133326030               
O1 19.65192232666915      13.46474249999999      21.26872474962653              
O1 2.16135641507086       11.89824599999998      2.59914935820939               
O1 13.32935003062771      11.89824599999998      18.19198277457562              
O1 12.11838372838234      16.87137069999998      5.00289661325060               
O1 23.28637734393918      16.87137069999998      20.59573002961682              
Si1 23.41885849502416      12.42014039999999      13.31665776888866             
Si1 9.09637197448115       16.34962399999997      4.81650998300301              
Si1 20.26436559003799      16.34962399999997      20.40934339936925             
Si1 20.19379993609443      17.21469769999998      14.56241317077851             
Si1 6.87874046936548       11.55509259999998      7.46883711893856              
Si1 18.04673408492233      11.55509259999998      23.06167053530480             
O1 15.62269161984171      10.50860539999999      6.46266563462741               
O1 26.79068523539856      10.50860539999999      22.05549905099363              
O1 13.07508176301978      18.26085099999998      14.40441576961344              
O1 13.81263296067067      16.69166969999998      9.68614302897786               
O1 24.98062657622751      16.69166969999998      25.27897644534408              
O1 9.44146090129743       12.07780709999999      15.07951434449245              
O1 16.82287302399517      15.30434989999997      5.82399425223810               
O1 27.99086663955200      15.30434989999997      21.41682766860432              
O1 14.06790199597351      13.46475169999998      13.47233777990951              
O1 7.74532482660510       11.89830599999998      10.39557072775931              
O1 18.91331844216193      11.89830599999998      25.98840414412553              
O1 17.70236569872546      16.87137119999998      12.79929191834718              
Si1 17.83485201665155      12.42012579999999      5.52021472696032              
Si1 29.00284563220840      12.42012579999999      21.11304814332655             
Si1 14.68035764803107      16.34961739999999      12.61292758082396             
Si1 14.60980746581792      17.21469619999998      6.76599307305605              
Si1 25.77780108137476      17.21469619999998      22.35882648942228             
Si1 12.46271020687930      11.55508249999999      15.26523870084074             
O1 32.09153495976612      0.91895149400000       6.46311155502701               
O1 10.32070822757122      0.91895149400000       22.05594497139324              
O1 29.54410214269915      8.67096841999999       14.40463911920258              
O1 30.28130333580041      7.10183356999999       9.68649221265481               
O1 8.51047660360550       7.10183356999999       25.27932562902103              
O1 25.91098943499989      2.48799857000000       15.07937115786052              
O1 0.35356601231309       5.71458396999999       5.82390079497078               
O1 11.52155962786993      5.71458396999999       21.41673421133701              
O1 30.53665937272891      3.87508694000000       13.47278799906112              
O1 24.21408988523494      2.30836379999999       10.39585947069059              
O1 2.44326315304003       2.30836379999999       25.98869288705682              
O1 1.23261488567735       7.28146477999998       12.79962911715627              
Si1 1.36539786881952       2.83020493000000       5.52015333020486              
Si1 12.53339148437637      2.83020493000000       21.11298674657109             
Si1 31.14947435231708      6.75976322999998       12.61314413065917             
Si1 31.07902294116762      7.62478054000000       6.76620510542741              
Si1 9.30819620897272       7.62478054000000       22.35903852179364             
Si1 28.93197314381105      1.96520487000000       15.26546247259586             
O1 4.73670315130392       0.91894009500000       14.25952118387458              
O1 23.96012565662515      8.67095498999999       6.60830969046969               
O1 2.18929892443023       8.67095498999999       22.20114310683591              
O1 24.69727737212030      7.10181206999998       1.89007927693723               
O1 2.92645063992539       7.10181206999998       17.48291269330344              
O1 20.32699861890592      2.48803866999999       7.28296281531055               
O1 31.49499223446274      2.48803866999999       22.87579623167677              
O1 5.93753554024292       5.71456227000000       13.62032475366839              
O1 24.95266040154825      3.87506728000000       5.67639300059452               
O1 3.18183366935333       3.87506728000000       21.26922641696074              
O1 18.63007343297949      2.30839244000000       2.59941894124499               
O1 29.79806704853634      2.30839244000000       18.19225235761120              
O1 28.58743508927575      7.28146650999999       5.00318971821070               
O1 6.81660835708084       7.28146650999999       20.59602313457692              
Si1 6.94936743092691       2.83018509000000       13.31654504987439             
Si1 25.56547936720056      6.75976131000000       4.81674817151947              
Si1 3.79465263500565       6.75976131000000       20.40958158788570             
Si1 3.72419886137936       7.62478050999999       14.56261333170626             
Si1 23.34797158591287      1.96519567999999       7.46905372999258              
Si1 1.57714485371796       1.96519567999999       23.06188714635880             
O1 32.09150763532817      10.50876089999999      6.46307048490294               
O1 10.32068090313327      10.50876089999999      22.05590390126916              
O1 29.54409185414853      18.26077849999997      14.40466579963972              
O1 30.28129522882066      16.69165599999998      9.68652039337480               
O1 8.51046849662573       16.69165599999998      25.27935380974103              
O1 25.91099542343084      12.07784479999998      15.07938604499575              
O1 0.35357635153997       15.30439009999998      5.82389548080219               
O1 11.52156996709681      15.30439009999998      21.41672889716842              
O1 30.53662896220538      13.46490329999999      13.47282866086825              
O1 24.21408783670395      11.89826739999998      10.39587241041430              
O1 2.44326110450904       11.89826739999998      25.98870582678052              
O1 1.23260974291835       16.87131499999997      12.79963911060063              
Si1 1.36539249503843       12.42001409999997      5.52013277520360              
Si1 12.53338611059527      12.42001409999997      21.11296619156983             
Si1 31.14947549392960      16.34958829999997      12.61316410055453             
Si1 31.07903868927417      17.21460239999997      6.76621146488812              
Si1 9.30821195707925       17.21460239999997      22.35904488125434             
Si1 28.93196946862418      11.55502549999999      15.26547468681302             
O1 4.73675914459491       10.50877269999999      14.25955488196598              
O1 23.96012562257160      18.26077429999998      6.60831032987594               
O1 2.18929889037669       18.26077429999998      22.20114374624215              
O1 24.69731240313159      16.69166789999997      1.89006550311241               
O1 2.92648567093667       16.69166789999997      17.48289891947863              
O1 20.32695490439619      12.07783709999998      7.28299486280098               
O1 31.49494851995303      12.07783709999998      22.87582827916720              
O1 5.93754420950475       15.30438649999998      13.62031350138422              
O1 24.95267076053285      13.46490329999999      5.67638496620358               
O1 3.18184402833794       13.46490329999999      21.26921838256980              
O1 18.63007396255468      11.89822409999999      2.59942397409211               
O1 29.79806757811151      11.89822409999999      18.19225739045834              
O1 28.58743212643926      16.87133329999998      5.00321803996205               
O1 6.81660539424436       16.87133329999998      20.59605145632827              
Si1 6.94938694388955       12.42003699999998      13.31655924192462             
Si1 25.56548332880995      16.34960089999997      4.81673721589762              
Si1 3.79465659661504       16.34960089999997      20.40957063226383             
Si1 3.72420379305163       17.21459779999997      14.56259737618657             
Si1 23.34796624106265      11.55504079999998      7.46905571306496              
Si1 1.57713950886773       11.55504079999998      23.06188912943118             
H1 6.24462899290658       7.77941356140377       1.82331088723647               
H1 4.22222589399694       2.62423811169953       2.36894516222301               
H1 26.58883962641474      7.57788547415028       26.53873040567842              
H1 17.25876376852120      2.87725235081770       27.14539842186008              
H1 6.24462916978092       17.36927512668972      1.82328719975088               
H1 4.22222029554990       12.21408265602426      2.36893815544533               
H1 26.58877423726986      17.16775990913062      26.53878164381078              
H1 17.25873905008504      12.46719982064190      27.14539886372442              
H1 10.11832310947476      7.57824100737034       26.53939526686332              
H1 0.78845750482117       2.87701405077175       27.14548374280818              
H1 22.71334418252630      7.77971188693141       1.82396677840981               
H1 20.69095605038890      2.62381269464231       2.36880492334737               
H1 10.11830448812770      17.16807463128175      26.53943263157253              
H1 0.78845108581046       12.46692301050038      27.14548779573190              
H1 22.71337594761726      17.36955654471032      1.82393645591087               
H1 20.69095581758425      12.21365741048098      2.36882100082725               
%endblock positionsabs       : *! Cartesian positions for each atom (Block)     
%block latticecart           : *! The simulation cell lattice vectors (Block)   
32.938820347751758      0.000000000000000       0.000000000000000               
0.000000000000000       19.179690699999973      0.000000000000000               
0.000000000000000       0.000000000000000       20                              
%endblock latticecart        : *! The simulation cell lattice vectors (Block)   
%block species               : *! Species information (symbol, atomic number, n 
O1 O 8 4 9.23609683290000                                                       
Si1 Si 14 4 9.23609683290000                                                    
H1 H 1 1 9.04712420160000                                                       
%endblock species            : *! Species information (symbol, atomic number, n 
%block speciespot            : *! Pseudopotential name for each species (Block) 
O1 O_00PBE_OP.recpot                                                            
Si1 Si_00PBE_OP.recpot                                                          
H1 H_00PBE_OP.recpot                                                            
%endblock speciespot         : *! Pseudopotential name for each species (Block) 
%block speciesatomicset      : *! Atomic set name for each species (Block)      
O1 SOLVE                                                                        
Si1 SOLVE                                                                       
H1 SOLVE                                                                        
%endblock speciesatomicset   : *! Atomic set name for each species (Block)      
%block speciesconstraints    : *! Ionic constraints for each species (Block)    
O1 NONE                                                                         
Si1 NONE                                                                        
H1 NONE                                                                         
%endblock speciesconstraints : *! Ionic constraints for each species (Block)    
-------------------------------------------------------------------------------
-------------------------------------------------------------------------------

<<<<<<<<<<<<<<<<<<<<<<<<< Pseudopotential information >>>>>>>>>>>>>>>>>>>>>>>>>
File: O_00PBE_OP.recpot [ 2001 points up to Gmax=  52.9 (1/bohr)]
  Atomic number:  8;  ionic charge:  6.000000
    Shell 1: l = 1; rc = 1.54 bohr
File: Si_00PBE_OP.recpot [ 2001 points up to Gmax=  52.9 (1/bohr)]
  Atomic number: 14;  ionic charge:  4.000000
    Shell 1: l = 1; rc = 1.54 bohr
    Shell 2: l = 2; rc = 1.54 bohr
File: H_00PBE_OP.recpot [ 2001 points up to Gmax=  52.9 (1/bohr)]
  Atomic number:  1;  ionic charge:  1.000000
    Local potential
<<<<<<<<<<<<<<<<<<<<<<<<<<<<<<<<<<<<<<< >>>>>>>>>>>>>>>>>>>>>>>>>>>>>>>>>>>>>>>

------------------------- Atom counting information ---------------------------
Symbol    Natoms    Nngwfs    Nprojs
  O        104       416       312
  Si        48       192       384
  H         16        16         0
.......   ......    ......    ......
Totals:    168       624       696
-------------------------------------------------------------------------------
 
============================== PSINC grid sizes ================================
                      Simulation cell:   63 x  33 x  35
                              FFT-box:   63 x  33 x  35
                                  PPD:    7 x  11 x   1
Grid space d1=  0.522838418218a0 (KE cutoff=  27.78875Eh = 756.17037eV)
Grid space d2=  0.581202748485a0 (KE cutoff=  22.48789Eh = 611.92659eV)
Grid space d3=  0.571428571429a0 (KE cutoff=  23.26377Eh = 633.03940eV)
================================================================================

********************** Fourier parallelisation information *********************
       Coarse grid (whole simulation cell) dimensions:     63    33    35
          Real-space ('12') slabs/node (min max mean):      1     2     1
         Recip-space ('23') slabs/node (min max mean):      1     2     1
********************************************************************************

********************** Fourier parallelisation information *********************
       Double grid (whole simulation cell) dimensions:    126    66    70
          Real-space ('12') slabs/node (min max mean):      2     3     2
         Recip-space ('23') slabs/node (min max mean):      2     3     2
********************************************************************************

Determining parallel strategy ...
... using space-filling curve
... NGWF load balancing: max     28;  min     24;  average     26
... Projector load balancing: max     33;  min     26;  average     29
... done
Calculating Ewald energy ...
              Ewald: real-space energy =    2558.748279
        Ewald: reciprocal-space energy =     145.404563
         Ewald: (sum_charge)**2 Energy =    2693.107468
         Ewald: (sum_charge**2) Energy =     456.665377
                          Ewald Energy =    -445.620003
Basis initialisation ...
... Atom positions lie inside simulation cell
... NGWF spheres initialised
... Projector spheres initialised
... NGWF tight boxes initialised
... NGWF basis size (local,global):     143836   3420128
... Tight-boxes gathered
... Nonlocal pseudopotential projector initialisation
... done

=========================== Sparse matrix information ==========================
                        Overlap matrix filling:  97.60%
                        Density kernel filling: 100.00%
              NGWF-Proj overlap matrix filling:  42.27%
                    Hamiltonian matrix filling:  99.91%
                  NGWF diagonal matrix filling:   0.63%
                             KS matrix filling: 100.00% 
                           KSKS matrix filling: 100.00% 
================================================================================

Sparse matrix initialisation ... done

Atom SCF Calculation for O  : Z (AE atom) =   8 : Z (PS atom) =   6
Config String:
Orbitals (num,occ):  2     2.00 4.00
Orbitals   (num,l):  2        0    1
Real-space Grid (nr,dr,rmax): 1201    0.0076967474    9.2360968329
Spherical Bessel Basis (nsws,lmax,cutoff):   47    1  132.2963792083
Confining potential (l,width,scale):  0    3.0000000000  100.0000000000
Confining potential (l,width,scale):  1    3.0000000000  100.0000000000
  1   -9.8878041392   -7.1216836614   10.1554375709   -2.4512393156
  2  -15.3589686009   -3.1715860458   13.3430439538   -3.1729146086
  3  -15.5581921248   -3.0693803644   13.4540852703   -3.2056758753
  4  -15.5554680473   -3.0874485302   13.4353884987   -3.2053156233
  5  -15.5722664093   -3.0826733890   13.4407901730   -3.2082959072
  6  -15.5747004197   -3.0833803264   13.4401231213   -3.2087390681
  7  -15.5764951659   -3.0834317806   13.4401160074   -3.2090572110
  8  -15.5774518904   -3.0834704483   13.4400998686   -3.2092244300
  9  -15.5779548237   -3.0835014949   13.4400799346   -3.2093109995
 10  -15.5782191599   -3.0835233510   13.4400635500   -3.2093557806
 11  -15.5783581727   -3.0835376302   13.4400519641   -3.2093789568
 12  -15.5784313244   -3.0835465407   13.4400443790   -3.2093909619
 13  -15.5784698426   -3.0835519319   13.4400396401   -3.2093971869
 14  -15.5784901368   -3.0835551221   13.4400367706   -3.2094004183
 15  -15.5785008358   -3.0835569788   13.4400350717   -3.2094020976
 16  -15.5785064794   -3.0835580455   13.4400340826   -3.2094029714
 17  -15.5785094582   -3.0835586521   13.4400335142   -3.2094034266
 18  -15.5785110312   -3.0835589941   13.4400331909   -3.2094036640
 19  -15.5785118623   -3.0835591856   13.4400330086   -3.2094037880
 20  -15.5785123017   -3.0835592922   13.4400329065   -3.2094038527
 21  -15.5785125340   -3.0835593513   13.4400328497   -3.2094038867
 22  -15.5785126570   -3.0835593839   13.4400328182   -3.2094039044
 23  -15.5785127221   -3.0835594018   13.4400328008   -3.2094039137
Atom SCF converged after  23 iterations to a total energy of    -15.57851272

Atom SCF Calculation for Si : Z (AE atom) =  14 : Z (PS atom) =   4
Config String:
Orbitals (num,occ):  2     2.00 2.00
Orbitals   (num,l):  2        0    1
Real-space Grid (nr,dr,rmax): 1201    0.0076967474    9.2360968329
Spherical Bessel Basis (nsws,lmax,cutoff):   47    2  132.2963792083
Confining potential (l,width,scale):  0    3.0000000000  100.0000000000
Confining potential (l,width,scale):  1    3.0000000000  100.0000000000
  1   -3.1426405353   -0.1319480980    4.5135278093   -1.4493313812
  2   -3.1368486721   -1.0553059796    2.9643988470   -0.9753989425
  3   -3.4419358945   -1.0934084697    2.9176955674   -0.9673277698
  4   -3.5747543664   -1.0766192110    2.9383659040   -0.9790415937
  5   -3.6466888678   -1.0657447956    2.9521294965   -0.9871879287
  6   -3.6856156667   -1.0593947192    2.9600181066   -0.9921670374
  7   -3.7065921192   -1.0559938146    2.9641588603   -0.9949489008
  8   -3.7177897024   -1.0542813826    2.9662395855   -0.9964264556
  9   -3.7237398314   -1.0534272976    2.9672835125   -0.9972008355
 10   -3.7269010444   -1.0529952632    2.9678144346   -0.9976073782
 11   -3.7285826371   -1.0527735937    2.9680877214   -0.9978216315
 12   -3.7294784539   -1.0526588121    2.9682294634   -0.9979348804
 13   -3.7299563507   -1.0525990624    2.9683033035   -0.9979948658
 14   -3.7302116479   -1.0525678639    2.9683418716   -0.9980266892
 15   -3.7303482139   -1.0525515422    2.9683620508   -0.9980435949
 16   -3.7304213638   -1.0525429922    2.9683726219   -0.9980525868
 17   -3.7304605968   -1.0525385087    2.9683781651   -0.9980573751
 18   -3.7304816659   -1.0525361556    2.9683810743   -0.9980599279
 19   -3.7304929947   -1.0525349196    2.9683826024   -0.9980612904
 20   -3.7304990938   -1.0525342700    2.9683834056   -0.9980620184
 21   -3.7305023812   -1.0525339282    2.9683838281   -0.9980624078
 22   -3.7305041553   -1.0525337484    2.9683840505   -0.9980626163
 23   -3.7305051137   -1.0525336537    2.9683841676   -0.9980627280
 24   -3.7305056321   -1.0525336037    2.9683842293   -0.9980627880
 25   -3.7305059128   -1.0525335774    2.9683842619   -0.9980628202
 26   -3.7305060649   -1.0525335635    2.9683842791   -0.9980628375
 27   -3.7305061475   -1.0525335562    2.9683842882   -0.9980628469
Atom SCF converged after  27 iterations to a total energy of     -3.73050615

Atom SCF Calculation for H  : Z (AE atom) =   1 : Z (PS atom) =   1
Config String:
Orbitals (num,occ):  1     1.00
Orbitals   (num,l):  1        0
Real-space Grid (nr,dr,rmax): 1177    0.0076931328    9.0471242016
Spherical Bessel Basis (nsws,lmax,cutoff):   46    0  132.2963792083
Confining potential (l,width,scale):  0    3.0000000000  100.0000000000
  1   -0.3257454504   -0.2402142361    0.2820954874   -0.2424203204
  2   -0.3989464201   -0.2398840115    0.2871482079   -0.2463848808
  3   -0.4336640130   -0.2381265963    0.2897587291   -0.2496418452
  4   -0.4483994875   -0.2373826569    0.2907070727   -0.2510967248
  5   -0.4543390333   -0.2371629394    0.2909665115   -0.2516378409
  6   -0.4567229041   -0.2371128690    0.2910179899   -0.2518288933
  7   -0.4576910219   -0.2371066243    0.2910199741   -0.2518962283
  8   -0.4580901052   -0.2371087637    0.2910145415   -0.2519204530
  9   -0.4582568147   -0.2371111574    0.2910102980   -0.2519294269
 10   -0.4583271760   -0.2371126341    0.2910078968   -0.2519328530
 11   -0.4583570962   -0.2371134062    0.2910066878   -0.2519341965
 12   -0.4583698867   -0.2371137813    0.2910061126   -0.2519347349
 13   -0.4583753745   -0.2371139566    0.2910058473   -0.2519349542
 14   -0.4583777351   -0.2371140367    0.2910057272   -0.2519350447
 15   -0.4583787523   -0.2371140728    0.2910056734   -0.2519350823
 16   -0.4583791911   -0.2371140890    0.2910056494   -0.2519350980
 17   -0.4583793807   -0.2371140961    0.2910056388   -0.2519351047
 18   -0.4583794626   -0.2371140993    0.2910056342   -0.2519351075
Atom SCF converged after  18 iterations to a total energy of     -0.45837946
NGWF initialisation ...... done
============ Calculation of NGWF S^-1 using Hotelling algorithm ================ 
         Iteration  |  Frobenius norm and Maximum abs value    (of I-S*S_n^-1)   
               1       0.24631542E+02     0.99082640E+00
               2       0.24318096E+02     0.98180710E+00
               3       0.23772779E+02     0.96421101E+00
               4       0.22903112E+02     0.93066846E+00
               5       0.21639279E+02     0.86937414E+00
               6       0.19949693E+02     0.77731301E+00
               7       0.17888645E+02     0.75816919E+00
               8       0.15667946E+02     0.74973998E+00
               9       0.13651222E+02     0.73888963E+00
              10       0.11822164E+02     0.72299307E+00
              11       0.97471999E+01     0.69881349E+00
              12       0.75729143E+01     0.66500055E+00
              13       0.59251106E+01     0.62595935E+00
              14       0.49187318E+01     0.58830522E+00
              15       0.41602422E+01     0.54789974E+00
              16       0.34585821E+01     0.48790251E+00
              17       0.28010498E+01     0.39204173E+00
              18       0.21213402E+01     0.27846096E+00
              19       0.13948765E+01     0.20407261E+00
              20       0.68601284E+00     0.11087712E+00
              21       0.18558963E+00     0.32908531E-01
              22       0.15597362E-01     0.29048973E-02
              23       0.12020863E-03     0.22648285E-04
              24       0.72358834E-08     0.13777497E-08
              25       0.99279952E-13     0.17333357E-13
================================================================================
Up spin density kernel initialisation ... 
======= Optimisation of K by Palser-Manolopoulos canonical purification ======== 
         Iteration  |  Band structure energy |    c_n   
               1         -52.03641826011035    0.6473972
               2         -63.04759968952325    0.6382242
               3         -74.77865856256895    0.6245907
               4         -87.16740271054223    0.6059732
               5        -100.04348528380407    0.5858765
               6        -112.62880995673791    0.5709569
               7        -123.21528317581800    0.5652851
               8        -130.22147660459473    0.5644615
               9        -133.64612197313062    0.5496332
              10        -134.99762230879656    0.5149154
              11        -135.46171187176202    0.4787286
              12        -135.57289572653562    0.4768175
              13        -135.60792348567841    0.4974103
              14        -135.62138049996659    0.5010870
              15        -135.62332626952738    0.5000675
              16        -135.62337142902612    0.5000000
              17        -135.62337146141294    0.3375801
              18        -135.62337146141292    0.4318830
Final occupancy bounds: [    0.00000000000000:    1.00000000000000]
Closest occupancy to 0.5:     1.00000000000000
================================================================================
... done

Writing density kernel to file "neutral_H.dkn" ... done
   Initial electron number for spin 1:     832.00000000
     Final electron number for spin 1:     832.00000000
................................................................................
<<<<<<<<<<<<<<<< Penalty functional density kernel optimisation >>>>>>>>>>>>>>>>
~~~~~~~~~~~~~~~~~~~~~~~~~~~~~~~~~~~~~~~~~~~~~~~~~~~~~~~~~~~~~~~~~~~~~~~~~~~~~~~~
iter|       energy      |   rms grad  |  commutator |LScoef|CGcoef|      Ne    |
      Q0=E0+P0:   -1636.799522969930=  -1636.799522969930+      0.000000000000
    Trial step:       1.000000000000
            G0:   -1096.967137077489
WARNING: minimum value of charge density: -6.2841
      Q1=E1+P1:   72461.507534169665=   -749.638712221916+  73211.146246391581
Quadratic term:  -75195.274194217083
   Linear term:   -1096.967137077489
  Optimal step:       0.007294122861
    !!! Quadratic fit may be unreliable; taking second trial step !!!
      Q2=E2+P2:   -1644.465729993941=  -1644.698301585851+      0.232571591910
Quadratic term:      -0.335206048305
   Linear term:      -8.001413072316
  Optimal step:       0.087055842677
 1  -1636.79952296993019 0.05307771509 0.09705673997 0.0871  0.000  832.00000000
WARNING: minimum value of charge density: -0.4266
      Q0=E0+P0:   -1667.873896453451=  -1717.850915276583+     49.977018823132
    Trial step:       0.025199127212
            G0:    -405.437244450431
WARNING: minimum value of charge density: -0.4969
      Q1=E1+P1:   -1673.583649153787=  -1734.976578886956+     61.392929733169
Quadratic term:      -4.506911999093
   Linear term:     -10.216664699429
  Optimal step:       0.028561799464
 Predicted min:   -1673.663905089163
    !!! Quadratic minimum step length accepted !!!
 2  -1717.85091527658301 0.05044699518 0.10248729781 0.0286  0.938  832.00000000
WARNING: minimum value of charge density: -0.5063
      Q0=E0+P0:   -1673.634734394800=  -1737.035140850609+     63.400406455809
    Trial step:       0.026827829173
            G0:    -585.820242158971
WARNING: minimum value of charge density: -0.3532
      Q1=E1+P1:   -1682.912107754050=  -1721.518302694316+     38.606194940266
Quadratic term:      -6.438912023216
   Linear term:     -15.716285382466
  Optimal step:       0.032741076283
 Predicted min:   -1683.224927013232
    !!! Quadratic minimum step length accepted !!!
 3  -1737.03514085060874 0.03875048021 0.08642261809 0.0327 -0.106  832.00000000
WARNING: minimum value of charge density: -0.3194

======================== Penalty functional minimisation =======================
   Final total energy     :   -1717.848499169929
   Final penalty energy   :      34.474960289534
   RMS occupancy error    :       0.117525
   Occupancy bounds       : [-0.300, 1.212]
================================================================================

Finished density kernel iterations (   3)

Writing density kernel to file "neutral_H.dkn" ... done

################################################################################
########################### NGWF CG iteration  001 #############################
################################################################################
****** Reciprocal space K.E. preconditioning with k_zero =  3.0000 a0^-1 *******
   Initial electron number for spin 1:     832.00000000
     Final electron number for spin 1:     832.00000000

=================== Penalty functional idempotency correction ==================
 RMS occupancy error at iteration   1:  0.117525 (step -0.3227 Ne1=    832.0000)
 RMS occupancy error at iteration   2:  0.017811 (step -0.5675 Ne1=    832.0000)
 RMS occupancy error at iteration   3:  0.002929 (step -0.5184 Ne1=    832.0000)
            Final RMS occupancy error   :  0.000076 (Ne1=    832.0000)
               Final occupancy bounds   : [ -0.0001,  1.0000]
================================================================================

................................................................................
<<<<<<<<<<<<<< LNV (Original version) density kernel optimisation >>>>>>>>>>>>>>
~~~~~~~~~~~~~~~~~~~~~~~~~~~~~~~~~~~~~~~~~~~~~~~~~~~~~~~~~~~~~~~~~~~~~~~~~~~~~~~~
iter|       energy      |  rms DeltaK |  commutator |LScoef|CGcoef|      Ne    |
      ideal mu1:      -0.132440973736
             Q0:   -1641.684426958009
             G0:     -22.035585138926
   RMS gradient:       0.007522768615
     Trial step:       0.500000000000
             Q1:   -1644.994480563432
 Quadratic coef:       7.707738964040
 Linear coef   :     -11.017792569463
           Qmin:   -1645.621760385817
Quadratic minimum step length (  0.357361368258) accepted
    Initial Ne1:     831.98964157
      Final Ne1:     832.00000000

=================== Penalty functional idempotency correction ==================
 RMS occupancy error at iteration   1:  0.007009 (step -0.4773 Ne1=    832.0000)
 RMS occupancy error at iteration   2:  0.000162 (step -0.5005 Ne1=    832.0000)
 RMS occupancy error at iteration   3:  0.000000 (step -0.5000 Ne1=    832.0000)
            Final RMS occupancy error   :  0.000000 (Ne1=    832.0000)
               Final occupancy bounds   : [  0.0000,  1.0000]
================================================================================

 1  -1641.68442695800923 0.00000000000 0.06459993776 0.3574  0.000  832.00000000
      ideal mu1:      -0.199365491466
             Q0:   -1645.741515120354
             G0:      -2.864949659723
   RMS gradient:       0.002682536898
     Trial step:       0.422706380516
             Q1:   -1646.362337137780
 Quadratic coef:       0.590210483597
 Linear coef   :      -1.211032501023
           Qmin:   -1646.362734058044
Quadratic minimum step length (  0.433668309376) accepted
    Initial Ne1:     831.99840162
      Final Ne1:     832.00000000

=================== Penalty functional idempotency correction ==================
 RMS occupancy error at iteration   1:  0.004102 (step -0.4790 Ne1=    832.0000)
 RMS occupancy error at iteration   2:  0.000108 (step -0.5007 Ne1=    832.0000)
 RMS occupancy error at iteration   3:  0.000000 (step -0.5000 Ne1=    832.0000)
            Final RMS occupancy error   :  0.000000 (Ne1=    832.0000)
               Final occupancy bounds   : [  0.0000,  1.0000]
================================================================================

 2  -1645.74151512035405 0.00874655300 0.01898478616 0.4337  0.127  832.00000000
      ideal mu1:      -0.208193086318
             Q0:   -1646.377479189172
             G0:      -1.862015092017
   RMS gradient:       0.002163667069
     Trial step:       0.428152264271
             Q1:   -1646.694994623017
 Quadratic coef:       0.479710543910
 Linear coef   :      -0.797225977755
           Qmin:   -1646.708704585234
Quadratic minimum step length (  0.355770903772) accepted
    Initial Ne1:     831.99914693
      Final Ne1:     832.00000000

=================== Penalty functional idempotency correction ==================
 RMS occupancy error at iteration   1:  0.005402 (step -0.4600 Ne1=    832.0000)
 RMS occupancy error at iteration   2:  0.000235 (step -0.5009 Ne1=    832.0000)
 RMS occupancy error at iteration   3:  0.000001 (step -0.5000 Ne1=    832.0000)
            Final RMS occupancy error   :  0.000000 (Ne1=    832.0000)
               Final occupancy bounds   : [  0.0000,  1.0000]
================================================================================

 3  -1646.37747918917239 0.00586271782 0.01595143213 0.3558  0.651  832.00000000
      ideal mu1:      -0.208598859688
             Q0:   -1646.730665384505
             G0:      -0.930483809845
   RMS gradient:       0.001493365791
     Trial step:       0.390287225017
             Q1:   -1646.912427564542
 Quadratic coef:       0.181393764030
 Linear coef   :      -0.363155944068
           Qmin:   -1646.912427751608
Quadratic minimum step length (  0.390683567367) accepted
    Initial Ne1:     831.99955373
      Final Ne1:     832.00000000

=================== Penalty functional idempotency correction ==================
 RMS occupancy error at iteration   1:  0.005255 (step -0.4538 Ne1=    832.0000)
 RMS occupancy error at iteration   2:  0.000229 (step -0.5005 Ne1=    832.0000)
 RMS occupancy error at iteration   3:  0.000001 (step -0.5000 Ne1=    832.0000)
            Final RMS occupancy error   :  0.000000 (Ne1=    832.0000)
               Final occupancy bounds   : [  0.0000,  1.0000]
================================================================================

 4  -1646.73066538450462 0.00398458900 0.01132517189 0.3907  0.476  832.00000000
      ideal mu1:      -0.205916833634
             Q0:   -1646.925005772999
             G0:      -0.771525561964
   RMS gradient:       0.001348408829
     Trial step:       0.390485345906
             Q1:   -1647.060934739309
 Quadratic coef:       0.165340459629
 Linear coef   :      -0.301269425939
           Qmin:   -1647.062242700986
Quadratic minimum step length (  0.355754714432) accepted
    Initial Ne1:     831.99966869
      Final Ne1:     832.00000000

=================== Penalty functional idempotency correction ==================
 RMS occupancy error at iteration   1:  0.006323 (step -0.4415 Ne1=    832.0000)
 RMS occupancy error at iteration   2:  0.000315 (step -0.5005 Ne1=    832.0000)
 RMS occupancy error at iteration   3:  0.000001 (step -0.5000 Ne1=    832.0000)
            Final RMS occupancy error   :  0.000000 (Ne1=    832.0000)
               Final occupancy bounds   : [  0.0000,  1.0000]
================================================================================

 5  -1646.92500577299893 0.00352041409 0.01077578561 0.3558  0.815  832.00000000
      ideal mu1:      -0.204865489635
             Q0:   -1647.076726025099
             G0:      -0.517490676926
   RMS gradient:       0.001079297084
     Trial step:       0.372715713007
             Q1:   -1647.175182838845
 Quadratic coef:       0.094420092879
 Linear coef   :      -0.192876906625
           Qmin:   -1647.175225984099
Quadratic minimum step length (  0.380683028281) accepted
    Initial Ne1:     831.99977284
      Final Ne1:     832.00000000

=================== Penalty functional idempotency correction ==================
 RMS occupancy error at iteration   1:  0.006366 (step -0.4398 Ne1=    832.0000)
 RMS occupancy error at iteration   2:  0.000304 (step -0.5004 Ne1=    832.0000)
 RMS occupancy error at iteration   3:  0.000001 (step -0.5000 Ne1=    832.0000)
            Final RMS occupancy error   :  0.000000 (Ne1=    832.0000)
               Final occupancy bounds   : [  0.0000,  1.0000]
================================================================================

 6  -1647.07672602509911 0.00333968256 0.00857254869 0.3807  0.641  832.00000000
      ideal mu1:      -0.206476291496
             Q0:   -1647.187388703898
             G0:      -0.306593120525
   RMS gradient:       0.000887353391
     Trial step:       0.376678306139
             Q1:   -1647.235925466022
 Quadratic coef:       0.066950215189
 Linear coef   :      -0.115486977313
           Qmin:   -1647.237191538329
Quadratic minimum step length (  0.324879008025) accepted
    Initial Ne1:     831.99999999
      Final Ne1:     832.00000000

=================== Penalty functional idempotency correction ==================
 RMS occupancy error at iteration   1:  0.000131 (step -0.4992 Ne1=    832.0000)
            Final RMS occupancy error   :  0.000000 (Ne1=    832.0000)
               Final occupancy bounds   : [ -0.0000,  1.0000]
================================================================================

 7  -1647.18738870389780 0.00239917840 0.00713502852 0.3249  0.000  832.00000000
      ideal mu1:      -0.206857840309
             Q0:   -1647.237269064499
             G0:      -0.228002708954
   RMS gradient:       0.000764686713
     Trial step:       0.349821203535
             Q1:   -1647.284326093668
 Quadratic coef:       0.032703152886
 Linear coef   :      -0.079760182056
           Qmin:   -1647.285901123491
Quadratic minimum step length (  0.426591940200) accepted
    Initial Ne1:     832.00008609
      Final Ne1:     832.00000000

=================== Penalty functional idempotency correction ==================
 RMS occupancy error at iteration   1:  0.000573 (step -0.4959 Ne1=    832.0000)
 RMS occupancy error at iteration   2:  0.000002 (step -0.5000 Ne1=    832.0000)
            Final RMS occupancy error   :  0.000000 (Ne1=    832.0000)
               Final occupancy bounds   : [  0.0000,  1.0000]
================================================================================

 8  -1647.23726906449883 0.00143786929 0.00671455407 0.4266  0.743  832.00000000
      ideal mu1:      -0.207275938560
             Q0:   -1647.286303721837
             G0:      -0.186034176042
   RMS gradient:       0.000688184466
     Trial step:       0.386304162467
             Q1:   -1647.315785900500
 Quadratic coef:       0.042383597903
 Linear coef   :      -0.071865776566
           Qmin:   -1647.316767687244
Quadratic minimum step length (  0.327509343234) accepted
    Initial Ne1:     832.00005349
      Final Ne1:     832.00000000

=================== Penalty functional idempotency correction ==================
 RMS occupancy error at iteration   1:  0.000855 (step -0.4927 Ne1=    832.0000)
 RMS occupancy error at iteration   2:  0.000005 (step -0.5000 Ne1=    832.0000)
            Final RMS occupancy error   :  0.000000 (Ne1=    832.0000)
               Final occupancy bounds   : [  0.0000,  1.0000]
================================================================================

 9  -1647.28630372183716 0.00160072938 0.00573893877 0.3275  0.810  832.00000000
      ideal mu1:      -0.206881865522
10  -1647.31735066927968 0.00117253924 0.00436491826 0.0000  0.000  832.00000000
Finished density kernel iterations (  10)

Writing density kernel to file "neutral_H.dkn" ... done

           ........................................................
           | *** NGWF optimisation not converged ***              |
           | RMS NGWF gradient =    0.00281829742397              |
           | Criteria not satisfied:                              |
           | -> RMS NGWF gradient higher than set threshold.      |
           ========================================================

------------------------------- NGWF line search -------------------------------
============ Calculation of NGWF S^-1 using Hotelling algorithm ================ 
         Iteration  |  Frobenius norm and Maximum abs value    (of I-S*S_n^-1)   
               1       0.16156550E+00     0.14194582E-01
               2       0.14593375E-02     0.14820712E-03
               3       0.21972909E-06     0.23046939E-07
               4       0.91980152E-13     0.12434498E-13
================================================================================
============ Calculation of NGWF S^-1 using Hotelling algorithm ================ 
         Iteration  |  Frobenius norm and Maximum abs value    (of I-S*S_n^-1)   
               1       0.97933310E+00     0.11917618E+00
[...]
*    O      98      0.00080967   0.00200915  -0.00017824 *
*    O      99      0.00029743   0.00008465   0.00042963 *
*    O     100     -0.00023698   0.00001997  -0.00047775 *
*    O     101      0.00043355   0.00017764  -0.00033719 *
*    O     102     -0.00031453  -0.00031558   0.00045590 *
*    O     103      0.00044591   0.00029531   0.00037714 *
*    O     104     -0.00015832  -0.00008065   0.00005807 *
*    O     105     -0.00258394  -0.00012252   0.00197780 *
*    O     106     -0.00017352  -0.00005107   0.00016156 *
*    O     107     -0.00033598   0.00015573   0.00072568 *
*    O     108     -0.00009202  -0.00010009   0.00137807 *
*    Si    109     -0.00001741  -0.00002351  -0.00006109 *
*    Si    110     -0.00051131  -0.00017200   0.00011119 *
*    Si    111      0.00005797  -0.00018329   0.00025950 *
*    Si    112     -0.00000897  -0.00003955   0.00009820 *
*    Si    113     -0.00000108  -0.00000877  -0.00018586 *
*    Si    114      0.00055971   0.00006463  -0.00023280 *
*    O     115     -0.00026401   0.00024141  -0.00044197 *
*    O     116      0.00032654  -0.00031812   0.00025345 *
*    O     117      0.00012137   0.00033259  -0.00051641 *
*    O     118      0.00026274  -0.00000740   0.00009199 *
*    O     119      0.00391400   0.00258370  -0.00192670 *
*    O     120      0.00017259  -0.00008073  -0.00057687 *
*    O     121     -0.00031416  -0.00019285  -0.00055222 *
*    O     122     -0.00018532  -0.00009765   0.00073868 *
*    O     123     -0.00015671   0.00046198   0.00033792 *
*    O     124     -0.00026074  -0.00003395  -0.00032337 *
*    O     125     -0.00063371   0.00220372  -0.00031161 *
*    O     126     -0.00022659  -0.00006957   0.00009523 *
*    Si    127     -0.00044311   0.00028389  -0.00004663 *
*    Si    128     -0.00000505  -0.00003058   0.00016891 *
*    Si    129      0.00000692   0.00001836  -0.00009785 *
*    Si    130      0.00010379   0.00004037  -0.00014436 *
*    Si    131      0.00030407  -0.00003381   0.00032810 *
*    Si    132     -0.00000209  -0.00000270   0.00013713 *
*    O     133      0.00020740   0.00008223  -0.00011985 *
*    O     134      0.00059762  -0.00036101  -0.00029446 *
*    O     135      0.00013979   0.00053240   0.00022987 *
*    O     136      0.00085090   0.00205650  -0.00019630 *
*    O     137      0.00030246   0.00005114   0.00040858 *
*    O     138     -0.00023593  -0.00002377  -0.00049785 *
*    O     139      0.00040829   0.00016296  -0.00032265 *
*    O     140     -0.00029307  -0.00001423   0.00050614 *
*    O     141      0.00051895   0.00025280   0.00040066 *
*    O     142     -0.00016911  -0.00024729   0.00011245 *
*    O     143     -0.00217397  -0.00033316   0.00159335 *
*    O     144     -0.00016792  -0.00009256   0.00015708 *
*    O     145     -0.00028363   0.00014116   0.00069892 *
*    O     146     -0.00008562   0.00007438   0.00138834 *
*    Si    147      0.00000062  -0.00002179  -0.00006638 *
*    Si    148     -0.00049491  -0.00010540   0.00010887 *
*    Si    149      0.00006298  -0.00017034   0.00026696 *
*    Si    150      0.00001474  -0.00006802   0.00008566 *
*    Si    151      0.00001435  -0.00003237  -0.00017202 *
*    Si    152      0.00064683  -0.00007595  -0.00032910 *
*    H     153      0.00009927   0.00003425   0.00024038 *
*    H     154      0.00007359  -0.00031655  -0.00000176 *
*    H     155      0.00019141  -0.00032102   0.00005552 *
*    H     156      0.00010466  -0.00016900   0.00003829 *
*    H     157      0.00010770  -0.00000518   0.00028440 *
*    H     158      0.00007295  -0.00026188   0.00002437 *
*    H     159      0.00018274  -0.00040758   0.00002323 *
*    H     160      0.00021518  -0.00011017   0.00017714 *
*    H     161      0.00007235  -0.00031397   0.00006130 *
*    H     162      0.00011154  -0.00026967   0.00012875 *
*    H     163      0.00010189   0.00003687   0.00025560 *
*    H     164      0.00006247  -0.00034496   0.00003167 *
*    H     165      0.00012191  -0.00042185   0.00000043 *
*    H     166      0.00014098  -0.00019998   0.00013559 *
*    H     167      0.00011351  -0.00001853   0.00029336 *
*    H     168      0.00002580  -0.00022488   0.00001524 *
*                                                        *
**********************************************************
TOTAL:              0.01036328   0.01972288   0.00785298

********************* Unconstrained **********************
************************* Forces *************************
*                                                        *
* Element  Atom         Cartesian components (Eh/a)      *
* ------------------------------------------------------ *
*                       x            y            z      *
*                                                        *
*    O       1      0.00136304   0.00178695   0.00221929 *
*    O       2     -0.41909361   0.48737723   0.47146730 *
*    O       3     -0.03272272  -0.08434387  -0.01664688 *
*    O       4     -9.04763438  -4.48318691  -4.25070276 *
*    O       5      0.00623409   0.00914331   0.00579489 *
*    O       6      0.68229742  -0.07405868   0.53989468 *
*    O       7     -0.06769018  -0.00184050  -0.11618339 *
*    O       8     -0.00289557   0.00293308   0.00186566 *
*    O       9      0.02142460  -0.06829916  -0.00247642 *
*    O      10      0.44945371   0.62203774  -0.59153332 *
*    O      11     21.94392317  12.94843937 -17.71347675 *
*    O      12      0.00296474  -0.00453541  -0.01517215 *
*    O      13      0.14212060   0.00138790   0.04861623 *
*    O      14     -0.48647982  -0.20155148  -0.84912854 *
*    Si     15      0.00447663  -0.00128514   0.00087992 *
*    Si     16     22.45402753 -13.86141914 -16.79642007 *
*    Si     17     -0.15000313  -0.01516367  -0.02451988 *
*    Si     18     -0.00609769   0.00045358  -0.01725658 *
*    Si     19      0.02916052   0.00208050  -0.01163553 *
*    Si     20    -22.68120912 -13.98383768  16.97614154 *
*    O      21     -0.09393423  -0.11317662   0.04629413 *
*    O      22     -0.00310755   0.01258651  -0.03842807 *
*    O      23     -0.00011669  -0.00280259   0.00095763 *
*    O      24     -0.00554329  -0.00278912   0.01161829 *
*    O      25    -22.49621739  13.03927619  17.64515200 *
*    O      26     -0.00751999   0.00000597   0.00019743 *
*    O      27     -0.00991004   0.06407346   0.00879319 *
*    O      28      0.06123168  -0.05456136  -0.08313864 *
*    O      29     -0.00239167  -0.00222354   0.00251027 *
*    O      30     -0.00315313   0.00717868   0.00229720 *
*    O      31      9.53481481  -4.49731103   4.11159584 *
*    O      32      0.00681223   0.00095454   0.00373853 *
*    Si     33     -9.86800608   4.91347139  -3.94240898 *
*    Si     34     -0.00460341   0.01390459  -0.00467783 *
*    Si     35     -0.00579604  -0.00062317  -0.00856083 *
*    Si     36      0.03036189   0.00225670   0.00001740 *
*    Si     37     10.03901535   4.88456717   3.35715983 *
*    Si     38      0.00928203   0.00160481   0.00448438 *
*    O      39      0.00132156   0.00180924   0.00222726 *
*    O      40     -0.41902326   0.48740766   0.47133756 *
*    O      41     -0.03272303  -0.08431632  -0.01662018 *
*    O      42     -9.04746182  -4.48276841  -4.25089393 *
*    O      43      0.00622278   0.00904154   0.00579596 *
*    O      44      0.68228500  -0.07412190   0.53991587 *
*    O      45     -0.06769201  -0.00193738  -0.11619121 *
*    O      46     -0.00292469   0.00299946   0.00186719 *
*    O      47      0.02145876  -0.06837883  -0.00251962 *
*    O      48      0.44944705   0.62197015  -0.59150701 *
*    O      49     21.94366230  12.94750419 -17.71364938 *
*    O      50      0.00296039  -0.00449845  -0.01516241 *
*    O      51      0.14210744   0.00144997   0.04863651 *
*    O      52     -0.48644033  -0.20145932  -0.84917015 *
*    Si     53      0.00448304  -0.00126639   0.00087633 *
*    Si     54     22.45338558 -13.86007357 -16.79654543 *
*    Si     55     -0.14996606  -0.01521033  -0.02449838 *
*    Si     56     -0.00605814   0.00049985  -0.01724208 *
*    Si     57      0.02916304   0.00210692  -0.01160390 *
*    Si     58    -22.68141468 -13.98340038  16.97594025 *
*    O      59     -0.09395203  -0.11307230   0.04628731 *
*    O      60     -0.00312924   0.01260769  -0.03846535 *
*    O      61     -0.00010594  -0.00276842   0.00093603 *
*    O      62     -0.00552255  -0.00288754   0.01160778 *
*    O      63    -22.49256227  13.03776011  17.64237166 *
*    O      64     -0.00753079  -0.00008932   0.00019204 *
*    O      65     -0.00993970   0.06402975   0.00878431 *
*    O      66      0.06121853  -0.05451250  -0.08314145 *
*    O      67     -0.00236979  -0.00215449   0.00249512 *
*    O      68     -0.00313390   0.00714675   0.00223815 *
*    O      69      9.53570987  -4.49638211   4.11203093 *
*    O      70      0.00680010   0.00097160   0.00372065 *
*    Si     71     -9.86895384   4.91251955  -3.94292249 *
*    Si     72     -0.00459124   0.01393818  -0.00468081 *
*    Si     73     -0.00580964  -0.00060005  -0.00854163 *
*    Si     74      0.03039304   0.00230798   0.00000374 *
*    Si     75     10.03930873   4.88476592   3.35750604 *
*    Si     76      0.00927312   0.00164663   0.00451559 *
*    O      77     -0.09262880  -0.11306064   0.04625718 *
*    O      78     -0.00473928   0.01264837  -0.03852065 *
*    O      79     -0.00013981  -0.00281723   0.00096423 *
*    O      80     -0.00648271  -0.00280557   0.01150272 *
*    O      81    -22.43057694  12.97883409  17.58504556 *
*    O      82     -0.00819801   0.00000765   0.00018696 *
*    O      83     -0.01158641   0.06411511   0.00892062 *
*    O      84      0.06164102  -0.05459421  -0.08314360 *
*    O      85     -0.00132753  -0.00218545   0.00245369 *
*    O      86     -0.00123843   0.00716733   0.00214823 *
*    O      87      9.53861918  -4.50125289   4.12027425 *
*    O      88      0.00804163   0.00095449   0.00371845 *
*    Si     89     -9.87421564   4.91776946  -3.94915636 *
*    Si     90     -0.00462037   0.01387795  -0.00467267 *
*    Si     91     -0.00565658  -0.00062685  -0.00851348 *
*    Si     92      0.03041878   0.00222286   0.00009069 *
*    Si     93     10.04794586   4.89226946   3.36842074 *
*    Si     94      0.00897488   0.00157669   0.00449867 *
*    O      95      0.00199905   0.00182341   0.00217836 *
*    O      96     -0.42045132   0.48696203   0.47107861 *
*    O      97     -0.03088615  -0.08462435  -0.01671352 *
*    O      98     -9.03647753  -4.47643413  -4.23788533 *
*    O      99      0.00516875   0.00912210   0.00569062 *
*    O     100      0.68148799  -0.07373139   0.54041932 *
*    O     101     -0.06616057  -0.00186617  -0.11617378 *
*    O     102     -0.00167203   0.00297020   0.00189048 *
*    O     103      0.01965760  -0.06808967  -0.00262972 *
*    O     104      0.45039992   0.62266214  -0.59198397 *
*    O     105     21.99778424  12.99665898 -17.76451035 *
*    O     106      0.00298723  -0.00452255  -0.01523874 *
*    O     107      0.14125083   0.00121847   0.04858162 *
*    O     108     -0.48564314  -0.20246160  -0.84986571 *
*    Si    109      0.00443930  -0.00133788   0.00082699 *
*    Si    110     22.52167539 -13.92118234 -16.85707603 *
*    Si    111     -0.15047527  -0.01516383  -0.02463165 *
*    Si    112     -0.00610809   0.00043129  -0.01718061 *
*    Si    113      0.02937367   0.00187902  -0.01151139 *
*    Si    114    -22.62975332 -13.93613117  16.92478175 *
*    O     115     -0.09262694  -0.11295350   0.04628743 *
*    O     116     -0.00478189   0.01265065  -0.03853877 *
*    O     117     -0.00012035  -0.00275468   0.00091984 *
*    O     118     -0.00647221  -0.00288689   0.01149831 *
*    O     119    -22.42954754  12.97762023  17.58519093 *
*    O     120     -0.00818834  -0.00008763   0.00019196 *
*    O     121     -0.01159273   0.06403704   0.00891201 *
*    O     122      0.06164256  -0.05455050  -0.08314291 *
*    O     123     -0.00129792  -0.00211108   0.00241876 *
*    O     124     -0.00123888   0.00717924   0.00215599 *
*    O     125      9.53928306  -4.50050847   4.12069107 *
*    O     126      0.00805342   0.00096599   0.00371137 *
*    Si    127     -9.87480158   4.91705888  -3.94940535 *
*    Si    128     -0.00458108   0.01389333  -0.00468187 *
*    Si    129     -0.00566503  -0.00059552  -0.00848412 *
*    Si    130      0.03043903   0.00227432   0.00007655 *
*    Si    131     10.04776201   4.89197270   3.36845398 *
*    Si    132      0.00895736   0.00163113   0.00454191 *
*    O     133      0.00194655   0.00185313   0.00218179 *
*    O     134     -0.42035205   0.48696671   0.47099512 *
*    O     135     -0.03090845  -0.08458160  -0.01664846 *
*    O     136     -9.03682302  -4.47657562  -4.23840240 *
*    O     137      0.00515942   0.00902679   0.00567982 *
*    O     138      0.68160286  -0.07384861   0.54044621 *
*    O     139     -0.06612640  -0.00195026  -0.11612875 *
*    O     140     -0.00170160   0.00304662   0.00190752 *
*    O     141      0.01973758  -0.06815139  -0.00265892 *
*    O     142      0.45041626   0.62254450  -0.59197760 *
*    O     143     21.99814090  12.99616341 -17.76449250 *
*    O     144      0.00298492  -0.00451952  -0.01525216 *
*    O     145      0.14122360   0.00128181   0.04859153 *
*    O     146     -0.48566470  -0.20237562  -0.84991779 *
*    Si    147      0.00446896  -0.00131611   0.00077557 *
*    Si    148     22.51824518 -13.91926792 -16.85459665 *
*    Si    149     -0.15042882  -0.01520683  -0.02463468 *
*    Si    150     -0.00609198   0.00047308  -0.01718060 *
*    Si    151      0.02939024   0.00192445  -0.01148828 *
*    Si    152    -22.62923180 -13.93540031  16.92465289 *
*    H     153     -0.37158715   0.26183549   0.32990691 *
*    H     154      0.32502157   0.02788863  -0.01372814 *
*    H     155      0.20562400   0.06183509   0.24678420 *
*    H     156     -0.31330720   0.09120864   0.77851685 *
*    H     157     -0.37162694   0.26186037   0.32999178 *
*    H     158      0.32500121   0.02789355  -0.01368843 *
*    H     159      0.20561764   0.06179108   0.24674012 *
*    H     160     -0.31325306   0.09123224   0.77851697 *
*    H     161      0.20548231   0.06182770   0.24681872 *
*    H     162     -0.31331573   0.09113728   0.77772540 *
*    H     163     -0.37114041   0.26117968   0.32863619 *
*    H     164      0.32484909   0.02797059  -0.01386355 *
*    H     165      0.20552063   0.06175382   0.24675592 *
*    H     166     -0.31327900   0.09111212   0.77761973 *
*    H     167     -0.37117244   0.26114126   0.32871434 *
*    H     168      0.32479374   0.02803164  -0.01387779 *
*                                                        *
**********************************************************
* TOTAL:           -0.00000000   0.00000000   0.00000000 *
**********************************************************

------------------------------ TIMING INFORMATION ------------------------------
TOTAL TIME:   25826.424s on     24 node(s)                                      
================== AVERAGE TIMINGS FROM ALL NODES (CUMULATIVE) =================
|| TAG                                   n calls    cpu time   %total  Gflops ||
|| total_time                          :       1   25826.42s 100.000%  ------ ||
|| ewald_calculate_energy              :       1       0.65s   0.003%  ------ ||
|| sparse_init                         :       1       0.55s   0.002%  ------ ||
|| integrals_brappd_ketppd             :     201     315.11s   1.220%  ------ ||
|| integrals_kinetic                   :     201     655.65s   2.539%  ------ ||
|| basis_copy_function_to_box          :   87828      21.15s   0.082%  ------ ||
|| fourier_apply_box_pair              :    7859      13.72s   0.053%  80.791 ||
|| fourier_apply_box                   :  187484    1330.96s   5.153%  96.766 ||
|| basis_extract_function_from_box     :19706282    2083.44s   8.067%  ------ ||
|| projectors_func_ovlp_box            :     201     624.33s   2.417%  ------ ||
|| projectors_init_fftbox_recip        :     504      47.87s   0.185%  ------ ||
|| pseudopotentials_nonlocal_mat       :     201       3.27s   0.013%  ------ ||
|| sparse_hotelling_invert             :     201      18.33s   0.071%  ------ ||
|| pseudo_make_structure_factor        :       1       0.03s   0.000%  ------ ||
|| pseudopotentials_local_on_grid      :       1       0.09s   0.000%  ------ ||
|| fourier_apply_cell_backward         :   10151      25.09s   0.097%  11.390 ||
|| density_initial_guess_real          :       1       0.74s   0.003%  ------ ||
|| cell_grid_deposit_box               :   56876     391.56s   1.516%  ------ ||
|| hartree_on_grid                     :    2030       8.54s   0.033%  ------ ||
|| fourier_apply_cell_forward          :   10151      28.76s   0.111%   9.936 ||
|| xc_energy_potential                 :    2030      59.43s   0.230%  ------ ||
|| integrals_locpot_dbl_grid           :    1045    6792.65s  26.301%  ------ ||
|| potential_apply_to_ngwf_batch       :    3135    1058.33s   4.098%  ------ ||
|| cell_grid_extract_box               :   32666     408.14s   1.580%  ------ ||
|| palser_mano_kernel_optimise         :       1       1.42s   0.006%  ------ ||
|| sparse_trace                        :   23183      39.92s   0.155%  ------ ||
|| restart_kernel_write                :     102       0.71s   0.003%  ------ ||
|| penalty_denskernel_optimise_cg      :       1      73.69s   0.285%  ------ ||
|| density_on_dbl_grid                 :    2031   13555.49s  52.487%  ------ ||
|| density_batch_row_sums              :    6093   11250.97s  43.564%  ------ ||
|| basis_add_function_to_box           :38492454    5113.96s  19.801%  ------ ||
|| density_batch_interp_deposit        :    6093    2210.89s   8.561%  ------ ||
|| density_fftbox_interpolate_multiply :   56868    1798.40s   6.963%  ------ ||
|| density_fftbox_deposit_to_cell      :   56868     391.35s   1.515%  ------ ||
|| ngwf_cg_optimise                    :       1   25676.10s  99.418%  ------ ||
|| lnv_denskernel_optimise_cg          :     100   19785.39s  76.609%  ------ ||
|| kernel_fix                          :    1000     108.80s   0.421%  ------ ||
|| kernel_purify                       :    3101      89.08s   0.345%  ------ ||
|| lnv_gradient_norm                   :    1000      88.96s   0.344%  ------ ||
|| ngwf_gradient_lnv                   :     100    2955.04s  11.442%  ------ ||
|| ngwf_gradient_coeffs                :     100      17.49s   0.068%  ------ ||
|| ngwf_gradient_batch                 :     300    2833.89s  10.973%  ------ ||
|| projectors_gradient_batch           :     300     301.85s   1.169%  ------ ||
|| restart_ngwfs_tightbox_output       :     100      33.96s   0.132%  ------ ||
|| hamiltonian_energy_components       :      20     399.42s   1.547%  ------ ||
|| nonsc_forces_ngwfs_calc             :       1       0.41s   0.002%  ------ ||
|| integrals_grad                      :       1       0.39s   0.002%  ------ ||
|| properties_calculate                :       1      30.86s   0.120%  ------ ||
|| eigenstates_calculate               :       1       6.97s   0.027%  ------ ||
|| dense_eigensolve                    :       1       5.47s   0.021%  ------ ||
|| forces_calculate                    :       1      18.74s   0.073%  ------ ||
|| ewald_calculate_forces              :       1       2.09s   0.008%  ------ ||
|| ewald_calculate_forces_realspace    :       1       0.04s   0.000%  ------ ||
|| ewald_calculate_forces_recipspace   :       1       2.03s   0.008%  ------ ||
|| pseudo_local_calculate_forces       :       1       0.17s   0.001%  ------ ||
|| pseudo_nl_calculate_forces          :       1       9.74s   0.038%  ------ ||
|| projectors_func_grad_ovlp_box       :       3       9.59s   0.037%  ------ ||
================================================================================

Job completed: 27-11-2013 19:10 (-0000)

